<?xml version="1.0" encoding="UTF-8"?>

<!-- generated on 2025-05-20 17:55:45 by Eclipse SUMO GUI Version 1.20.0
<configuration xmlns:xsi="http://www.w3.org/2001/XMLSchema-instance" xsi:noNamespaceSchemaLocation="http://sumo.dlr.de/xsd/sumoConfiguration.xsd">

    <input>
        <net-file value="/Users/sorresantonin/MAB_VRU_Signalisation/SUMO/intersection.net.xml"/>
        <route-files value="/Users/sorresantonin/MAB_VRU_Signalisation/SUMO/intersection.rou.xml"/>
    </input>

    <output>
        <fcd-output value="/Users/sorresantonin/MAB_VRU_Signalisation/SUMO/trace.xml"/>
        <tripinfo-output value="/Users/sorresantonin/MAB_VRU_Signalisation/SUMO/tripinfo.xml"/>
    </output>

    <time>
        <begin value="0"/>
        <end value="3600"/>
        <step-length value="0.1"/>
    </time>

    <processing>
        <collision.action value="warn"/>
        <time-to-teleport value="-1"/>
    </processing>

    <report>
        <verbose value="true"/>
        <no-step-log value="true"/>
    </report>

</configuration>
-->

<tripinfos xmlns:xsi="http://www.w3.org/2001/XMLSchema-instance" xsi:noNamespaceSchemaLocation="http://sumo.dlr.de/xsd/tripinfo_file.xsd">
</tripinfos>
